compound,flashpoint,pure substance,smiles,source
ALLYLTRICHLOROGERMANE,328.15,1,C=CC[Ge](Cl)(Cl)Cl,gelest_germanium
ALLYLTRIETHYLGERMANE,321.15,1,C=CC[Ge](CC)(CC)CC,gelest_germanium
ALLYLTRIMETHYLGERMANE,274.15,1,C=CC[Ge](C)(C)C,gelest_germanium
BIS(CHLOROMETHYL)DIMETHYLGERMANE,324.15,1,C[Ge](C)(CCl)CCl,gelest_germanium
t-BUTYLDIMETHYLCHLOROGERMANE,307.15,1,CC(C)(C)[Ge](C)(C)Cl,gelest_germanium
n-BUTYLTRICHLOROGERMANE,355.15,1,CCCC[Ge](Cl)(Cl)Cl,gelest_germanium
DI-n-BUTYLDICHLOROGERMANE,380.15,1,CCCC[Ge](Cl)(Cl)CCCC,gelest_germanium
DICHLOROMETHYLTRIMETHYLGERMANE,306.15,1,C[Ge](C)(C)C(Cl)Cl,gelest_germanium
DIETHYLDICHLOROGERMANE,325.15,1,CC[Ge](Cl)(Cl)CC,gelest_germanium
DIMETHYLAMINOTRIMETHYLGERMANE,263.15,1,CN(C)[Ge](C)(C)C,gelest_germanium
DIPHENYLDICHLOROGERMANE,433.15,1,Cl[Ge](Cl)(c1ccccc1)c1ccccc1,gelest_germanium
DIPHENYLGERMANE,377.15,1,c1ccc([GeH2]c2ccccc2)cc1,gelest_germanium
ETHYLTRICHLOROGERMANE,324.15,1,CC[Ge](Cl)(Cl)Cl,gelest_germanium
HEXAMETHYLDIGERMANE,287.15,1,C[Ge](C)(C)[Ge](C)(C)C,gelest_germanium
METHACRYLOXYMETHYLTRIMETHYLGERMANE,336.15,1,C=C(C)C(=O)OC[Ge](C)(C)C,gelest_germanium
METHYLTRICHLOROGERMANE,283.15,1,C[Ge](Cl)(Cl)Cl,gelest_germanium
METHYLTRIETHOXYGERMANE,313.15,1,CCO[Ge](C)(OCC)OCC,gelest_germanium
TETRAALLYLGERMANE,343.15,1,C=CC[Ge](CC=C)(CC=C)CC=C,gelest_germanium
TETRA-n-BUTOXYGERMANE,385.15,1,CCCCO[Ge](OCCCC)(OCCCC)OCCCC,gelest_germanium
TETRA-n-BUTYLGERMANE,363.15,1,CCCC[Ge](CCCC)(CCCC)CCCC,gelest_germanium
TETRAETHOXYGERMANE,335.15,1,CCO[Ge](OCC)(OCC)OCC,gelest_germanium
TETRAETHYLGERMANE,315.15,1,CC[Ge](CC)(CC)CC,gelest_germanium
TETRAKIS(DIMETHYLAMINO)GERMANE,307.15,1,CN(C)[Ge](N(C)C)(N(C)C)N(C)C,gelest_germanium
TETRAISOPROPOXYGERMANE,341.15,1,CC(C)O[Ge](OC(C)C)(OC(C)C)OC(C)C,gelest_germanium
TETRAMETHOXYGERMANE,307.15,1,CO[Ge](OC)(OC)OC,gelest_germanium
TETRAMETHYLGERMANE,254.15,1,C[Ge](C)(C)C,gelest_germanium
TRI-n-BUTYLCHLOROGERMANE,367.15,1,CCCC[Ge](Cl)(CCCC)CCCC,gelest_germanium
TRI-n-BUTYLGERMANE,351.15,1,CCCC[GeH](CCCC)CCCC,gelest_germanium
TRICHLOROGERMANE,285.15,1,Cl[GeH](Cl)Cl,gelest_germanium
TRIETHYLCHLOROGERMANE,311.15,1,CC[Ge](Cl)(CC)CC,gelest_germanium
TRIETHYLGERMANE,278.15,1,CC[GeH](CC)CC,gelest_germanium
TRIISOPROPYLCHLOROGERMANE,339.15,1,CC(C)[Ge](Cl)(C(C)C)C(C)C,gelest_germanium
TRIMETHYLBROMOGERMANE,310.15,1,C[Ge](C)(C)Br,gelest_germanium
TRIMETHYLCHLOROGERMANE,274.15,1,C[Ge](C)(C)Cl,gelest_germanium
VINYLTRIETHYLGERMANE,305.15,1,C=C[Ge](CC)(CC)CC,gelest_germanium
ALUMINUM DIISOPROPOXIDE ETHYLACETOACETATE,323.15,1,CC(C)[O-].CC(C)[O-].CCOC(=O)CC(C)=O.[Al+2],gelest_metal-organics
ANTIMONY(III) n-BUTOXIDE,341.15,1,CCCC[O-].CCCC[O-].CCCC[O-].[Sb+3],gelest_metal-organics
ARSENIC TRIETHOXIDE,322.15,1,CC[O-].CC[O-].CC[O-].[As+3],gelest_metal-organics
BORON ALLYLOXIDE,304.15,1,C=CCOCC=C.[B],gelest_metal-organics
BORON n-BUTOXIDE,366.15,1,CCCC[O-].CCCC[O-].CCCC[O-].[B+3],gelest_metal-organics
BORON ETHOXIDE,284.15,1,CC[O-].CC[O-].CC[O-].[B+3],gelest_metal-organics
BORON ISOPROPOXIDE,301.15,1,CC(C)[O-].CC(C)[O-].CC(C)[O-].[B+3],gelest_metal-organics
BORON METHOXIDE,272.15,1,C[O-].C[O-].C[O-].[B+3],gelest_metal-organics
BORON METHOXYETHOXIDE,386.15,1,COC(C)[O-].COC(C)[O-].COC(C)[O-].[B+3],gelest_metal-organics
NICKEL DI-n-BUTYLDITHIOCARBAMATE,533.15,1,CCCCN(CCCC)C(=S)[S-].CCCCN(CCCC)C(=S)[S-].[Ni+2],gelest_metal-organics
NIOBIUM(V) n-BUTOXIDE,363.15,1,CCCC[O-].CCCC[O-].CCCC[O-].CCCC[O-].CCCC[O-].[Nb+5],gelest_metal-organics
NIOBIUM(V) ETHOXIDE,347.15,1,CC[O-].CC[O-].CC[O-].CC[O-].CC[O-].[Nb+5],gelest_metal-organics
TANTALUM(V) n-BUTOXIDE,339.15,1,CCCC[O-].CCCC[O-].CCCC[O-].CCCC[O-].CCCC[O-].[Ta+5],gelest_metal-organics
TANTALUM(V) ETHOXIDE,313.15,1,CC[O-].CC[O-].CC[O-].CC[O-].CC[O-].[Ta+5],gelest_metal-organics
TITANIUM n-BUTOXIDE,349.15,1,CCCC[O-].CCCC[O-].CCCC[O-].CCCC[O-].[Ti+4],gelest_metal-organics
TITANIUM CHLORIDE TRIISOPROPOXIDE,295.15,1,CC(C)[O-].CC(C)[O-].CC(C)[O-].[Cl-].[Ti+4],gelest_metal-organics
TITANIUM ETHOXIDE,301.15,1,CC[O-].CC[O-].CC[O-].CC[O-].[Ti+4],gelest_metal-organics
TITANIUM ETHOXIDE,303.15,1,CC[O-].CC[O-].CC[O-].CC[O-].[Ti+4],gelest_metal-organics
TITANIUM DIISOPROPOXIDE BIS(ETHYLACETOACETATE),300.15,1,CC(C)[O-].CC(C)[O-].CCCC(=O)CC(=O)[O-].CCCC(=O)CC(=O)[O-].[Ti+4],gelest_metal-organics
TITANIUM ISOBUTOXIDE,350.15,1,CC(C)C[O-].CC(C)C[O-].CC(C)C[O-].CC(C)C[O-].[Ti+4],gelest_metal-organics
TITANIUM ISOPROPOXIDE,298.15,1,CC(C)[O-].CC(C)[O-].CC(C)[O-].CC(C)[O-].[Ti+4],gelest_metal-organics
TITANIUM METHOXIDE,321.15,1,C[O-].C[O-].C[O-].C[O-].[Ti+4],gelest_metal-organics
TITANIUM METHYLPHENOXIDE,339.15,1,Cc1ccccc1[O-].Cc1ccccc1[O-].Cc1ccccc1[O-].Cc1ccccc1[O-].[Ti+4],gelest_metal-organics
TITANIUM n-PROPOXIDE,318.15,1,CCC[O-].CCC[O-].CCC[O-].CCC[O-].[Ti+4],gelest_metal-organics
TITANIUM TRIISOSTEAROYLISOPROPOXIDE,366.15,1,CC(C)CCCCCCCCCCCCCCC(=O)C(C(=O)CCCCCCCCCCCCCCC(C)C)(C(=O)CCCCCCCCCCCCCCC(C)C)C(C)[O-].CC(C)CCCCCCCCCCCCCCC(=O)C(C(=O)CCCCCCCCCCCCCCC(C)C)(C(=O)CCCCCCCCCCCCCCC(C)C)C(C)[O-].CC(C)CCCCCCCCCCCCCCC(=O)C(C(=O)CCCCCCCCCCCCCCC(C)C)(C(=O)CCCCCCCCCCCCCCC(C)C)C(C)[O-].CC(C)CCCCCCCCCCCCCCC(=O)C(C(=O)CCCCCCCCCCCCCCC(C)C)(C(=O)CCCCCCCCCCCCCCC(C)C)C(C)[O-].[Ti+4],gelest_metal-organics
ZIRCONIUM t-BUTOXIDE,358.15,1,CC(C)(C)[O-].CC(C)(C)[O-].CC(C)(C)[O-].CC(C)(C)[O-].[Zr+4],gelest_metal-organics
CALCIUM 2-ETHYLHEXANOATE,400.15,1,CCCCC(CC)C(=O)[O-].CCCCC(CC)C(=O)[O-].[Ca+2],gelest_metal-organics
SILVER NEODECANOATE,375.15,1,CC(C)(C)CCCCCC(=O)[O-].[Ag+],gelest_metal-organics
ZINC 2-ETHYLHEXANOATE,400.15,1,CCCCC(CC)C(=O)[O-].CCCCC(CC)C(=O)[O-].[Zn+2],gelest_metal-organics
ZINC NEODECANOATE,375.15,1,CC(C)(C)CCCCCC(=O)[O-].CC(C)(C)CCCCCC(=O)[O-].[Zn+2],gelest_metal-organics
TITANIUM TETRACHLORIDE,377.15,1,Cl[Ti](Cl)(Cl)Cl,gelest_metal-organics
DIMETHYLALUMINUM CHLORIDE,255.15,1,C[Al](C)Cl,gelest_metal-organics
DIMETHYLISOPROPOXYALUMINUM,278.15,1,CC(C)O[Al](C)C,gelest_metal-organics
DIMETHYLCADMIUM,255.15,1,C[Cd]C,gelest_metal-organics
VINYLFERROCENE,335.15,1,C=C[c-]1cccc1.[Fe+2].c1cc[cH-]c1,gelest_metal-organics
TRIMETHYLGALLIUM,272.15,1,C[Ga](C)C,gelest_metal-organics
TRIS(DIMETHYLAMINO)GALLIUM,329.15,1,CN(C)[Ga](N(C)C)N(C)C,gelest_metal-organics
HAFNIUM TETRAKIS(ETHYLMETHYLAMIDE),283.15,1,CC[N-]C.CC[N-]C.CC[N-]C.CC[N-]C.[Hf+4],gelest_metal-organics
DICYCLOHEXYLPHOSPHINE,383.15,1,C1CCC(PC2CCCCC2)CC1,gelest_metal-organics
DIETHYLPHOSPHITE,363.15,1,CCOP([O-])OCC,gelest_metal-organics
DIPHENYLPHOSPHINE,383.15,1,c1ccc(Pc2ccccc2)cc1,gelest_metal-organics
DIPHENYLPHOSPHORYL AZIDE,385.15,1,[N-]=[N+]=NP(=O)(c1ccccc1)c1ccccc1,gelest_metal-organics
TETRADECYL(TRIHEXYL)PHOSPHONIUM CHLORIDE,391.15,1,CCCCCCCCCCCCCC[P+](CCCCCC)(CCCCCC)CCCCCC.[Cl-],gelest_metal-organics
TRIETHYLPHOSPHATE,389.15,1,CCOP(=O)(OCC)OCC,gelest_metal-organics
TRIETHYLPHOSPHITE,327.15,1,CCOP(OCC)OCC,gelest_metal-organics
TRIMETHYLPHOSPHITE,300.15,1,COP(OC)OC,gelest_metal-organics
TRIOCTYLPHOSPHINE,420.15,1,CCCCCCCCP(CCCCCCCC)CCCCCCCC,gelest_metal-organics
TRIPHENYLPHOSPHINE,455.15,1,c1ccc(P(c2ccccc2)c2ccccc2)cc1,gelest_metal-organics
TRIS(DIETHYLAMINO)(t-BUTYLIMINO) TANTALUM,319.15,1,CCN(CC)[Ta](=NC(C)(C)C)(N(CC)CC)N(CC)CC,gelest_metal-organics
TITANIUM TETRAKIS(DIETHYLAMIDE),310.15,1,CC[N-]CC.CC[N-]CC.CC[N-]CC.CC[N-]CC.[Ti+4],gelest_metal-organics
TITANIUM TETRAKIS(DIMETHYLAMIDE),281.15,1,C[N-]C.C[N-]C.C[N-]C.C[N-]C.[Ti+4],gelest_metal-organics
TITANIUM TETRAKIS(ETHYLMETHYLAMIDE),283.15,1,CC[N-]C.CC[N-]C.CC[N-]C.CC[N-]C.[Ti+4],gelest_metal-organics
ZIRCONIUM TETRAKIS(ETHYLMETHYLAMIDE),283.15,1,CC[N-]C.CC[N-]C.CC[N-]C.CC[N-]C.[Zr+4],gelest_metal-organics
TETRAETHYLLEAD,346.15,1,CC[Pb](CC)(CC)CC,gelest_metal-organics
TRIS(TRIMETHYLSILOXY)BORON,315.15,1,C[Si](C)(C)OB(O[Si](C)(C)C)O[Si](C)(C)C,gelest_metal-organics
ACETOXYETHYLDIMETHYLCHLOROSILANE,336.15,1,CC(=O)OCC[Si](C)(C)Cl,gelest_silanes
ACETOXYETHYLMETHYLDICHLOROSILANE,338.15,1,CC(=O)OCC[Si](C)(Cl)Cl,gelest_silanes
ACETOXYETHYLTRICHLOROSILANE,355.15,1,CC(=O)OCC[Si](Cl)(Cl)Cl,gelest_silanes
ACETOXYETHYLTRIETHOXYSILANE,372.15,1,CCO[Si](CCOC(C)=O)(OCC)OCC,gelest_silanes
ACETOXYMETHYLTRIMETHYLSILANE,293.15,1,CC(=O)OC[Si](C)(C)C,gelest_silanes
3-ACETOXYPROPYLMETHYLDICHLOROSILANE,358.15,1,CC(=O)OCCC[Si](C)(Cl)Cl,gelest_silanes
3-ACETOXYPROPYLTRIMETHOXYSILANE,366.15,1,CO[Si](CCCOC(C)=O)(OC)OC,gelest_silanes
ACETOXYTRIMETHYLSILANE,277.15,1,CC(=O)O[Si](C)(C)C,gelest_silanes
ACETYLTRIMETHYLSILANE,281.15,1,CC(=O)[Si](C)(C)C,gelest_silanes
ACRYLOXYMETHYLTRIMETHOXYSILANE,335.15,1,C=CC(=O)OC[Si](OC)(OC)OC,gelest_silanes
(3-ACRYLOXYPROPYL)DIMETHYLMETHOXYSILANE,358.15,1,C=CC(=O)OCCC[Si](C)(C)OC,gelest_silanes
(3-ACRYLOXYPROPYL)TRIMETHOXYSILANE,396.15,1,C=CC(=O)OCCC[Si](OC)(OC)OC,gelest_silanes
(3-ACRYLOXYPROPYL)TRIS(TRIMETHYLSILOXY)SILANE,366.15,1,C=CC(=O)OCCC[Si](O[Si](C)(C)C)(O[Si](C)(C)C)O[Si](C)(C)C,gelest_silanes
ACRYLOXYTRIMETHYLSILANE,299.15,1,C=CC(=O)O[Si](C)(C)C,gelest_silanes
3-(N-ALLYLAMINO)PROPYLTRIMETHOXYSILANE,361.15,1,C=CCNCCC[Si](OC)(OC)OC,gelest_silanes
ALLYLAMINOTRIMETHYLSILANE,283.15,1,C=CCN[Si](C)(C)C,gelest_silanes
ALLYL(CHLOROMETHYL)DIMETHYLSILANE,300.15,1,C=CC[Si](C)(C)CCl,gelest_silanes
ALLYL(3-CHLOROPROPYL)DICHLOROSILANE,349.15,1,C=CC[Si](Cl)(Cl)CCCCl,gelest_silanes
ALLYLDICHLOROSILANE,269.15,1,C=CC[SiH](Cl)Cl,gelest_silanes
ALLYLDIMETHYL(DIISOPROPYLAMINO)SILANE,335.15,1,C=CC[Si](C)(C)N(C(C)C)C(C)C,gelest_silanes
ALLYLDIMETHYLSILANE,253.15,1,C=CC[SiH](C)C,gelest_silanes
ALLYL(4-METHOXYPHENYL)DIMETHYLSILANE,375.15,1,C=CC[Si](C)(C)c1ccc(OC)cc1,gelest_silanes
ALLYLMETHYLDICHLOROSILANE,300.15,1,C=CCC[SiH](Cl)Cl,gelest_silanes
ALLYLOXY-t-BUTYLDIMETHYLSILANE,305.15,1,C=CCO[Si](C)(C)C(C)(C)C,gelest_silanes
ALLYLOXYTRIMETHYLSILANE,273.15,1,C=CCO[Si](C)(C)C,gelest_silanes
ALLYLPHENYLDICHLOROSILANE,349.15,1,C=CC[Si](Cl)(Cl)c1ccccc1,gelest_silanes
ALLYLTRICHLOROSILANE,304.15,1,C=CC[Si](Cl)(Cl)Cl,gelest_silanes
ALLYLTRIETHOXYSILANE,320.15,1,C=CC[Si](OCC)(OCC)OCC,gelest_silanes
ALLYLTRIISOPROPYLSILANE,349.15,1,C=CC[Si](C(C)C)(C(C)C)C(C)C,gelest_silanes
ALLYLTRIMETHOXYSILANE,319.15,1,C=CC[Si](OC)(OC)OC,gelest_silanes
ALLYLTRIMETHYLSILANE,280.15,1,C=CC[Si](C)(C)C,gelest_silanes
ALLYLTRIS(TRIMETHYLSILOXY)SILANE,340.15,1,C=CC[Si](O[Si](C)(C)C)(O[Si](C)(C)C)O[Si](C)(C)C,gelest_silanes
4-AMINOBUTYLTRIETHOXYSILANE,382.15,1,CCO[Si](CCCCN)(OCC)OCC,gelest_silanes
N-(2-AMINOETHYL)-3-AMINOPROPYLMETHYLDIMETHOXYSILANE,363.15,1,CO[Si](C)(CCCNCCN)OC,gelest_silanes
N-(2-AMINOETHYL)-3-AMINOPROPYLTRIETHOXYSILANE,421.15,1,CCO[Si](CCCNCCN)(OCC)OCC,gelest_silanes
N-(2-AMINOETHYL)-3-AMINOPROPYLTRIMETHOXYSILANE,423.15,1,CO[Si](CCCNCCN)(OC)OC,gelest_silanes
AMINOMETHYLTRIMETHYLSILANE,282.15,1,C[Si](C)(C)CN,gelest_silanes
m-AMINOPHENYLTRIMETHOXYSILANE,453.15,1,CO[Si](OC)(OC)c1cccc(N)c1,gelest_silanes
p-AMINOPHENYLTRIMETHOXYSILANE,453.15,1,CO[Si](OC)(OC)c1ccc(N)cc1,gelest_silanes
AMINOPHENYLTRIMETHOXYSILANE,453.15,1,CO[Si](OC)(OCN)c1ccccc1,gelest_silanes
3-AMINOPROPYLDIMETHYLETHOXYSILANE,346.15,1,CCO[Si](C)(C)CCCN,gelest_silanes
3-AMINOPROPYLTRIETHOXYSILANE,377.15,1,CCO[Si](CCCN)(OCC)OCC,gelest_silanes
3-AMINOPROPYLTRIMETHOXYSILANE,356.15,1,CO[Si](CCCN)(OC)OC,gelest_silanes
3-AMINOPROPYLTRIMETHYLSILANE,332.15,1,C[Si](C)(C)CCCN,gelest_silanes
3-AMINOPROPYLTRIS(METHOXYETHOXYETHOXY)SILANE,341.15,1,COCCOCCO[Si](CCCN)(OCCOCCOC)OCCOCCOC,gelest_silanes
(AZIDOMETHYL)TRIMETHYLSILANE,279.15,1,C[Si](C)(C)CN=[N+]=[N-],gelest_silanes
6-AZIDOSULFONYLHEXYLTRIETHOXYSILANE,387.15,1,CCO[Si](CCCCCCS(=O)(=O)N=[N+]=[N-])(OCC)OCC,gelest_silanes
N-BENZYLAMINOMETHYLTRIMETHYLSILANE,389.15,1,C[Si](C)(C)CNCc1ccccc1,gelest_silanes
BENZYLDIMETHYLCHLOROSILANE,346.15,1,C[Si](C)(Cl)Cc1ccccc1,gelest_silanes
BENZYLDIMETHYLSILANE,338.15,1,C[SiH](C)Cc1ccccc1,gelest_silanes
N-BENZYL-N-METHOXYMETHYL-N-(TRIMETHYLSILYLMETHYL)AMINE,339.15,1,COCN(Cc1ccccc1)C[Si](C)(C)C,gelest_silanes
ALLYLTRI-n-BUTYLTIN,376.15,1,C=CC[Sn](CCCC)(CCCC)CCCC,gelest_tin
BIS[BIS(TRIMETHYLSILYL)AMINO]TIN(II),329.15,1,C[Si](C)(C)N([Sn]N([Si](C)(C)C)[Si](C)(C)C)[Si](C)(C)C,gelest_tin
t-BUTYLTRI n-BUTYLTIN,375.15,1,CCCC[Sn](CCCC)(CCCC)C(C)(C)C,gelest_tin
CHLOROMETHYLTRIMETHYLTIN,312.15,1,C[Sn](C)(C)CCl,gelest_tin
DIALLYLDI-n-BUTYLTIN,374.15,1,C=CC[Sn](CC=C)(CCCC)CCCC,gelest_tin
DI-n-BUTYLDIACETOXYTIN,416.15,1,CCCC[Sn](CCCC)(OC(C)=O)OC(C)=O,gelest_tin
DI-n-BUTYLDI-n-BUTOXYTIN,389.15,1,CCCCO[Sn](CCCC)(CCCC)OCCCC,gelest_tin
DI-n-BUTYLDICHLOROTIN,441.15,1,CCCC[Sn](Cl)(Cl)CCCC,gelest_tin
DI-t-BUTYLDICHLOROTIN,386.15,1,CC(C)(C)[Sn](Cl)(Cl)C(C)(C)C,gelest_tin
DI-n-BUTYLDIMETHOXYTIN,383.15,1,CCCC[Sn](CCCC)(OC)OC,gelest_tin
DIMETHYLAMINOTRI-n-BUTYLTIN,388.15,1,CCCC[Sn](CCCC)(CCCC)N(C)C,gelest_tin
DIMETHYLAMINOTRIMETHYLTIN,274.15,1,CN(C)[Sn](C)(C)C,gelest_tin
DIOCTYLDICHLOROTIN,477.15,1,CCCCCCCC[Sn](Cl)(Cl)CCCCCCCC,gelest_tin
DIOCTYLDILAURYLTIN,471.15,1,CCCCCCCCCCCC[Sn](CCCCCCCC)(CCCCCCCC)CCCCCCCCCCCC,gelest_tin
DIVINYLDICHLOROTIN,477.15,1,C=C[Sn](Cl)(Cl)C=C,gelest_tin
1-ETHOXYVINYLTRI-n-BUTYLTIN,386.15,1,C=C(OCC)[Sn](CCCC)(CCCC)CCCC,gelest_tin
ETHYNYLTRI-n-BUTYLTIN,346.15,1,C#C[Sn](CCCC)(CCCC)CCCC,gelest_tin
PHENYLETHYNYLTRI-n-BUTYLTIN,386.15,1,CCCC[Sn](C#Cc1ccccc1)(CCCC)CCCC,gelest_tin
PHENYLTRI-n-BUTYLTIN,380.15,1,CCCC[Sn](CCCC)(CCCC)c1ccccc1,gelest_tin
PHENYLTHIOTRI-n-BUTYLTIN,377.15,1,CCCC[Sn](CCCC)(CCCC)Sc1ccccc1,gelest_tin
TETRAALLYLTIN,348.15,1,C=CC[Sn](CC=C)(CC=C)CC=C,gelest_tin
TETRABUTYLDILAURYLDISTANNOXANE,504.15,1,CCCCCCCCCCCC[Sn](CCCC)(CCCCCCCCCCCC)O[Sn](CCCC)(CCCC)CCCC,gelest_tin
TETRA-n-BUTYLTIN,274.15,1,CCCC[Sn](CCCC)(CCCC)CCCC,gelest_tin
TETRA-n-BUTYLTIN,380.15,1,CCCC[Sn](CCCC)(CCCC)CCCC,gelest_tin
TETRAETHYLTIN,326.15,1,CC[Sn](CC)(CC)CC,gelest_tin
TETRAKIS(DIETHYLAMINO)TIN,312.15,1,CCN(CC)[Sn](N(CC)CC)(N(CC)CC)N(CC)CC,gelest_tin
TETRAMETHYLTIN,261.15,1,C[Sn](C)(C)C,gelest_tin
TETRA-n-OCTYLTIN,367.15,1,CCCCCCCC[Sn](CCCCCCCC)(CCCCCCCC)CCCCCCCC,gelest_tin
TETRAPHENYLTIN,504.15,1,c1ccc([Sn](c2ccccc2)(c2ccccc2)c2ccccc2)cc1,gelest_tin
TETRAVINYLTIN,313.15,1,C=C[Sn](C=C)(C=C)C=C,gelest_tin
2-THIENYLTRI-n-BUTYLTIN,379.15,1,CCCC[Sn](CCCC)(CCCC)c1cccs1,gelest_tin
TRI-n-BUTYLACETOXYTIN,393.15,1,CCCCC(CCCC)(CCCC)C(=O)O[Sn],gelest_tin
TRI-n-BUTYLCHLOROTIN,393.15,1,CCCC[Sn](Cl)(CCCC)CCCC,gelest_tin
TRI-n-BUTYLETHOXYTIN,377.15,1,CCCC[Sn](CCCC)(CCCC)OCC,gelest_tin
TRI-n-BUTYLIODOTIN,386.15,1,CCCC[Sn](I)(CCCC)CCCC,gelest_tin
TRI-n-BUTYLMETHOXYTIN,371.15,1,CCCC[Sn](CCCC)(CCCC)OC,gelest_tin
TRI-n-BUTYLTIN HYDRIDE,313.15,1,CCCC[SnH](CCCC)CCCC,gelest_tin
TRICYCLOHEXYLTIN HYDRIDE,378.15,1,C1CCC([SnH](C2CCCCC2)C2CCCCC2)CC1,gelest_tin
TRIETHYLBROMOTIN,372.15,1,CC[Sn](Br)(CC)CC,gelest_tin
TRIMETHYLCHLOROTIN,370.15,1,C[Sn](C)(C)Cl,gelest_tin
TRIPHENYLCHLOROTIN,343.15,1,Cl[Sn](c1ccccc1)(c1ccccc1)c1ccccc1,gelest_tin