compound,flashpoint,pure substance,smiles,source,is_silicon,is_metallic,is_tin,is_acid
chloro(trimethyl)silane,255.15,1,C[Si](C)(C)Cl,pubchem,1,1,0,0
dichloro(dimethyl)silane,264.15,1,C[Si](C)(Cl)Cl,pubchem,1,1,0,0
trichloro(ethenyl)silane,294.15,1,C=C[Si](Cl)(Cl)Cl,pubchem,1,1,0,0
tetraethyl silicate,310.15,1,CCO[Si](OCC)(OCC)OCC,pubchem,1,1,0,0
dichloro(diphenyl)silane,415.15,1,C1=CC=C(C=C1)[Si](C2=CC=CC=C2)(Cl)Cl,pubchem,1,1,0,0
trichloro(phenyl)silane,364.15,1,C1=CC=C(C=C1)[Si](Cl)(Cl)Cl,pubchem,1,1,0,0
trichloro(prop-2-enyl)silane,308.15,1,C=CC[Si](Cl)(Cl)Cl,pubchem,1,1,0,0
trichloro(pentyl)silane,336.15,1,CCCCC[Si](Cl)(Cl)Cl,pubchem,1,1,0,0
trichloro(octadecyl)silane,362.15,1,CCCCCCCCCCCCCCCCCC[Si](Cl)(Cl)Cl,pubchem,1,1,0,0
trichloro(ethyl)silane,295.15,1,CC[Si](Cl)(Cl)Cl,pubchem,1,1,0,0
trichloro(propyl)silane,310.15,1,CCC[Si](Cl)(Cl)Cl,pubchem,1,1,0,0
dichloro-methyl-phenylsilane,301.15,1,C[Si](C1=CC=CC=C1)(Cl)Cl,pubchem,1,1,0,0
3-triethoxysilylpropan-1-amine,371.15,1,CCO[Si](CCCN)(OCC)OCC,pubchem,1,1,0,0
[dimethyl-(trimethylsilylamino)silyl]methane,282.15,1,C[Si](C)(C)N[Si](C)(C)C,pubchem,1,1,0,0
trichloro(chloromethyl)silane,342.15,1,C([Si](Cl)(Cl)Cl)Cl,pubchem,1,1,0,0
dichloro(diethyl)silane,297.15,1,CC[Si](CC)(Cl)Cl,pubchem,1,1,0,0
3-trimethoxysilylpropyl 2-methylprop-2-enoate,365.15,1,CC(=C)C(=O)OCCC[Si](OC)(OC)OC,pubchem,1,1,0,0
trichloro(hexadecyl)silane,419.15,1,CCCCCCCCCCCCCCCC[Si](Cl)(Cl)Cl,pubchem,1,1,0,0
butyl(trichloro)silane,325.15,1,CCCC[Si](Cl)(Cl)Cl,pubchem,1,1,0,0
dimethyl-bis(trimethylsilyloxy)silane,408.15,1,C[Si](C)(C)O[Si](C)(C)O[Si](C)(C)C,pubchem,1,1,0,0
trimethyl(trimethylsilyloxy)silane,243.15,1,C[Si](C)(C)O[Si](C)(C)C,pubchem,1,1,0,0
trimethyl-[methyl-bis(trimethylsilyloxy)silyl]oxysilane,359.15,1,C[Si](C)(C)O[Si](C)(O[Si](C)(C)C)O[Si](C)(C)C,pubchem,1,1,0,0
trichloro(cyclohexyl)silane,364.15,1,C1CCC(CC1)[Si](Cl)(Cl)Cl,pubchem,1,1,0,0
dimethyl-octadecyl-(3-trimethoxysilylpropyl)azanium;chloride,288.15,1,CCCCCCCCCCCCCCCCCC[N+](C)(C)CCC[Si](OC)(OC)OC.[Cl-],pubchem,1,1,0,0
"trichloro-(3,4-dichlorophenyl)silane",414.15,1,C1=CC(=C(C=C1[Si](Cl)(Cl)Cl)Cl)Cl,pubchem,1,1,0,0
InChI=1S/C2H6ClSi/c1-4(2)3/h1-2H3,264.15,1,C[Si](C)Cl,pubchem,1,1,0,0
"InChI=1S/C2H5Cl2Si/c1-2-5(3)4/h2H2,1H3",272.15,1,CC[Si](Cl)Cl,pubchem,1,1,0,0
InChI=1S/CH3Cl2Si/c1-4(2)3/h1H3,247.15,1,C[Si](Cl)Cl,pubchem,1,1,0,0
"InChI=1S/C6H15O3Si/c1-4-7-10(8-5-2)9-6-3/h4-6H2,1-3H3",300.15,1,CCO[Si](OCC)OCC,pubchem,1,1,0,0
InChI=1S/CH3ClSi/c1-3-2/h1H3,264.15,1,C[Si]Cl,pubchem,1,1,0,0
ethoxy(trioxido)silane,310.15,1,CCO[Si]([O-])([O-])[O-],pubchem,1,1,0,0
Vinyltrichlorosilane,294.15,1,C(=C)[Si](Cl)(Cl)Cl,chen14,1,1,0,0
Ethylsilane,213.15,1,C(C)[SiH3],chen14,1,1,0,0
"Trichloro(3,3,3-trifluoropropyl)silane",288.15,1,Cl[Si](CCC(F)(F)F)(Cl)Cl,chen14,1,1,0,0
n-Propyltrichlorosilane,310.15,1,C(CC)[Si](Cl)(Cl)Cl,chen14,1,1,0,0
Trimethylfluorosilane,238.15,1,C[Si](F)(C)C,chen14,1,1,0,0
Trimethylsilylisothiocyanate,308.15,1,C[Si](C)(C)N=C=S,chen14,1,1,0,0
ETHYLDIMETHYLCHLOROSILANE,269.15,1,C(C)[Si](Cl)(C)C,chen14,1,1,0,0
Methoxytrimethylsilane,243.15,1,CO[Si](C)(C)C,chen14,1,1,0,0
Dimethyldimethoxysilane,265.15,1,C[Si](OC)(OC)C,chen14,1,1,0,0
Methyltrimethoxysilane,284.15,1,C[Si](OC)(OC)OC,chen14,1,1,0,0
Diethylsilane,253.15,1,C(C)[SiH2]CC,chen14,1,1,0,0
"(N,N-Dimethylamino)dimethylsilane",260.15,1,CN(C)[SiH](C)C,chen14,1,1,0,0
Tetraisocyanatosilane,323.15,1,N(=C=O)[Si](N=C=O)(N=C=O)N=C=O,chen14,1,1,0,0
Cyclopentyltrichlorosilane,350.15,1,C1(CCCC1)[Si](Cl)(Cl)Cl,chen14,1,1,0,0
Trimethylsilyltrifluoroacetate,273.15,1,C[Si](C)(C)OC(C(F)(F)F)=O,chen14,1,1,0,0
Cyclopentyldichlorosilane,316.15,1,C1(CCCC1)[SiH](Cl)Cl,chen14,1,1,0,0
3-Chloro-2-methylpropylmethyldichlorosilane,363.15,1,ClCC(C[Si](Cl)(Cl)C)C,chen14,1,1,0,0
Methylvinyldimethoxysilane,277.15,1,CC=C[SiH](OC)OC,chen14,1,1,0,0
Vinyltrimethoxysilane,296.15,1,C(=C)[Si](OC)(OC)OC,chen14,1,1,0,0
Trimethylvinylsilane,239.15,1,CC(=C(C)C)[SiH3],chen14,1,1,0,0
Diethylmethylchlorosilane,288.15,1,C(C)[Si](Cl)(C)CC,chen14,1,1,0,0
Chloromethyldimethylethoxysilane,299.15,1,ClC[Si](OCC)(C)C,chen14,1,1,0,0
Ethoxytrimethylsilane,246.15,1,C(C)O[Si](C)(C)C,chen14,1,1,0,0
Ethyltrimethoxysilane,300.15,1,C(C)[Si](OC)(OC)OC,chen14,1,1,0,0
"(N,N-Dimethylamino)trimethylsilane",254.5,1,CN(C)[Si](C)(C)C,chen14,1,1,0,0
Pentamethyldisiloxane,254.15,1,C[SiH](O[Si](C)(C)C)C,chen14,1,1,0,0
Phenylsilane,281.15,1,C1(=CC=CC=C1)[SiH3],chen14,1,1,0,0
1-Hexenyltrichlorosilane,333.15,1,C(=CCCCC)[Si](Cl)(Cl)Cl,chen14,1,1,0,0
Cyclohexyltrichlorosilane,358.15,1,C1(CCCCC1)[Si](Cl)(Cl)Cl,chen14,1,1,0,0
Bis(chloromethyl)tetramethyldisiloxane,346.15,1,ClC[Si](O[Si](C)(C)C)(C)CCl,chen14,1,1,0,0
Propargyloxytrimethylsilane,300.15,1,C(C#C)O[Si](C)(C)C,chen14,1,1,0,0
Divinyldimethylsilane,281.15,1,C(=C)[Si](C)(C)C=C,chen14,1,1,0,0
n-Hexyltrichlorosilane,358.15,1,C(CCCCC)[Si](Cl)(Cl)Cl,chen14,1,1,0,0
Hexyldichlorosilane,337.15,1,C(CCCCC)[SiH](Cl)Cl,chen14,1,1,0,0
"1,1 -Dimethyl-1-sila-2-oxacyclohexane",287.15,1,C[Si]1(OCCCC1)C,chen14,1,1,0,0
Acetoxymethyltrimethylsilane,293.15,1,C(C)(=O)OC[Si](C)(C)C,chen14,1,1,0,0
Allyltrimethylsilane,280.15,1,C(C=C)[Si](C)(C)C,chen14,1,1,0,0
Triethylchlorosilane,303.15,1,C(C)[Si](Cl)(CC)CC,chen14,1,1,0,0
t-Butyldimethylchlorosilane,295.15,1,C(C)(C)(C)[Si](Cl)(C)C,chen14,1,1,0,0
3-Chloropropylmethyldimethoxysilane,318.15,1,ClCCC[Si](OC)(OC)C,chen14,1,1,0,0
Trimethyl-n-propoxysilane,283.15,1,C[Si](OCCC)(C)C,chen14,1,1,0,0
t-Butyldimethylsilanol,318.15,1,C(C)(C)(C)[Si](O)(C)C,chen14,1,1,0,0
Dimethyldiethoxysilane,284.15,1,C[Si](OCC)(OCC)C,chen14,1,1,0,0
Triethylsilane,270.15,1,C(C)[SiH](CC)CC,chen14,1,1,0,0
Hexylsilane,285.15,1,C(CCCCC)[SiH3],chen14,1,1,0,0
t-Butyld imethyl silane,251.15,1,C(C)(C)(C)[SiH](C)C,chen14,1,1,0,0
Bis(dimethylamino)dimethylsilane,266.15,1,CN(C)[Si](C)(C)N(C)C,chen14,1,1,0,0
Hexamethylcyclotrisiloxane,305.15,1,C[Si]1(O[Si](O[Si](O1)(C)C)(C)C)C,chen14,1,1,0,0
Hexamethyldisilthiane,299.15,1,C[Si](S[Si](C)(C)C)(C)C,chen14,1,1,0,0
Hexamethyldisilazane,281.15,1,C[Si](N[Si](C)(C)C)(C)C,chen14,1,1,0,0
Tris(dimethylamino)silane,298.15,1,CN(C)[SiH](N(C)C)N(C)C,chen14,1,1,0,0
Hexamethyltrisiloxane,293.15,1,C[Si](O[SiH2]O[Si](C)(C)C)(C)C,chen14,1,1,0,0
Phenylmethyldichlorosilane,340.15,1,C1(=CC=CC=C1)C[SiH](Cl)Cl,chen14,1,1,0,0
Phenylmethylchlorosilane,355.15,1,C1(=CC=CC=C1)C[SiH2]Cl,chen14,1,1,0,0
Methyltriacetoxysilane,358.15,1,C[Si](OC(C)=O)(OC(C)=O)OC(C)=O,chen14,1,1,0,0
Trivinylmethylsilane,288.15,1,C(=C)C(C=C)(C=C)[SiH3],chen14,1,1,0,0
Cyclohexylmethyldichlorosilane,355.15,1,C1(CCCCC1)C[SiH](Cl)Cl,chen14,1,1,0,0
"1-(Trimethylsiloxy)-1,3-butadiene",298.15,1,C[Si](OC=CC=C)(C)C,chen14,1,1,0,0
2-Chloromethyl-3-trimethylsilyl-1-propene,316.15,1,ClCC(=C)C[Si](C)(C)C,chen14,1,1,0,0
n-Heptyltrichlorosilane,337.15,1,C(CCCCCC)[Si](Cl)(Cl)Cl,chen14,1,1,0,0
n-Hexylmethyldichlorosilane,358.15,1,C(CCCCC)[Si](Cl)(Cl)C,chen14,1,1,0,0
Vinylmethyldiethoxysilane,289.15,1,C(=C)C[SiH](OCC)OCC,chen14,1,1,0,0
N-(Trimethylsilyl)morpholine,300.15,1,C[Si](N1CCOCC1)(C)C,chen14,1,1,0,0
t-Butoxytrimethylsilane,287.15,1,C(C)(C)(C)O[Si](C)(C)C,chen14,1,1,0,0
(1-Methoxy-2-propoxy)trimethylsilane,293.15,1,COCC(C)O[Si](C)(C)C,chen14,1,1,0,0
Methyltriethoxysilane,297.15,1,C[Si](OCC)(OCC)OCC,chen14,1,1,0,0
(Diethylamino)trimethylsilane,283.15,1,C(C)N(CC)[Si](C)(C)C,chen14,1,1,0,0
Bis(trimethylsilyl)methane,285.15,1,C[Si](C)(C)C[Si](C)(C)C,chen14,1,1,0,0
Heptamethyldisilazane,300.15,1,C[Si](N([Si](C)(C)C)C)(C)C,chen14,1,1,0,0
Bis(trimethylsiloxy)methylsilane,296.15,1,C[Si](OC(O[Si](C)(C)C)[SiH3])(C)C,chen14,1,1,0,0
Tetravinylsilane,291.15,1,C(=C)[Si](C=C)(C=C)C=C,chen14,1,1,0,0
Cyclopentadienyltrimethylsilane,302.15,1,C1(C=CC=C1)[Si](C)(C)C,chen14,1,1,0,0
(Cyclopentenyloxy)trimethylsilane,311.15,1,C1(=CCCC1)O[Si](C)(C)C,chen14,1,1,0,0
"(2,4-Pentadienyl)trimethylsilane",291.15,1,C(C=CC=C)[Si](C)(C)C,chen14,1,1,0,0
n-Octyltrichlorosilane,369.15,1,C(CCCCCCC)[Si](Cl)(Cl)Cl,chen14,1,1,0,0
n-Heptylmethyldichlorosilane,339.15,1,C(CCCCCC)[Si](Cl)(Cl)C,chen14,1,1,0,0
Tetramethyldivinyldisiloxane,292.15,1,C[Si](O[Si](C=C)(C=C)C)(C)C,chen14,1,1,0,0
Triethylacetoxysilane,314.15,1,C(C)C(C(=O)O[SiH3])(CC)CC,chen14,1,1,0,0
Vinyltriethoxysilane,307.15,1,C(=C)[Si](OCC)(OCC)OCC,chen14,1,1,0,0
"1,3-Divinyltetramethyldisilazane",307.15,1,C(=C)[Si](N[Si](C=C)(C)C)(C)C,chen14,1,1,0,0
Diethyldiethoxysilane,316.15,1,C(C)[Si](OCC)(OCC)CC,chen14,1,1,0,0
Tetraethoxysilane,323.15,1,C(C)O[Si](OCC)(OCC)OCC,chen14,1,1,0,0
Tetraethylsilane,305.15,1,C(C)[Si](CC)(CC)CC,chen14,1,1,0,0
Aminoethylaminopropyltrimethoxysilane,269.15,1,NCCNCCC[Si](OC)(OC)OC,chen14,1,1,0,0
Tetramethyldiethoxysiloxane,311.15,1,CC(C(O[Si]([O])OCC)(C)C)C,chen14,1,1,0,0
Octamethyltrisiloxane,303.15,1,C[Si](O[Si](O[Si](C)(C)C)(C)C)(C)C,chen14,1,1,0,0
Octamethylcyclotetrasilazane,339.15,1,C[Si]1(N[Si](N[Si](N[Si](N1)(C)C)(C)C)(C)C)C,chen14,1,1,0,0
Tetrakisdimethylsiloxysilane,340.15,1,C[SiH](O[Si](O[SiH](C)C)(O[SiH](C)C)O[SiH](C)C)C,chen14,1,1,0,0
p-Chlorophenyltrimethylsilane,322.15,1,ClC1=CC=C(C=C1)[Si](C)(C)C,chen14,1,1,0,0
Phenyltrimethoxysilane,358.15,1,C1(=CC=CC=C1)[Si](OC)(OC)OC,chen14,1,1,0,0
Trimethylphenylsilane,313.15,1,C[Si](C1=CC=CC=C1)(C)C,chen14,1,1,0,0
Cyclohexylmethyldimethoxysilane,343.15,1,C1(CCCCC1)C[SiH](OC)OC,chen14,1,1,0,0
Hexyltrimethoxysilane,335.15,1,C(CCCCC)[Si](OC)(OC)OC,chen14,1,1,0,0
Triisopropylsilane,310.15,1,C(C)(C)[SiH](C(C)C)C(C)C,chen14,1,1,0,0
Tri-n-propylsilane,316.15,1,C(CC)[SiH](CCC)CCC,chen14,1,1,0,0
Propyltris(dimethylsiloxy)silane,323.15,1,C(CC)[Si](O[SiH](C)C)(O[SiH](C)C)O[SiH](C)C,chen14,1,1,0,0
Benzyltrimethylsilane,335.15,1,C(C1=CC=CC=C1)[Si](C)(C)C,chen14,1,1,0,0
3-Methacryloxypropyltrimethoxysilane,365.15,1,C(C(=C)C)(=O)OCCC[Si](OC)(OC)OC,chen14,1,1,0,0
1-Heptynyltrimethylsilane,315.15,1,C(#CCCCCC)[Si](C)(C)C,chen14,1,1,0,0
n-Octyldimethylchlorosilane,370.15,1,C(CCCCCCC)[Si](Cl)(C)C,chen14,1,1,0,0
Bis(diethylamino)dimethylsilane,308.15,1,C(C)N(CC)[Si](C)(C)N(CC)CC,chen14,1,1,0,0
Decamethyltetrasiloxane,335.15,1,C[Si](O[Si](O[Si](O[Si](C)(C)C)(C)C)(C)C)(C)C,chen14,1,1,0,0
"2-(3,4-epoxycyclohexyl)ethyltrimethoxysilane",419.15,1,C1(CC2C(CC1)O2)CC[Si](OC)(OC)OC,chen14,1,1,0,0
n-Decylmethyldichlorosilane,393.15,1,C(CCCCCCCCC)[Si](Cl)(Cl)C,chen14,1,1,0,0
Diphenyldichlorosilane,415.15,1,C1(=CC=CC=C1)[Si](Cl)(Cl)C1=CC=CC=C1,chen14,1,1,0,0
Phenyltriethoxysilane,393.15,1,C1(=CC=CC=C1)[Si](OCC)(OCC)OCC,chen14,1,1,0,0
Diphenylsilane,371.15,1,C1(=CC=CC=C1)[SiH2]C1=CC=CC=C1,chen14,1,1,0,0
"2,4,6,8-Tetravinyl-2,4,6,8-tetramethylcyclotetrasiloxane",385.15,1,C(=C)[Si]1(O[Si](O[Si](O[Si](O1)(C)C=C)(C)C=C)(C)C=C)C,chen14,1,1,0,0
n-Dodecyltrichlorosilane,435.15,1,C(CCCCCCCCCCC)[Si](Cl)(Cl)Cl,chen14,1,1,0,0
Tetra-n-propoxysilane,368.15,1,C(CC)O[Si](OCCC)(OCCC)OCCC,chen14,1,1,0,0
Hexaethyldisiloxane,349.15,1,C(C)[Si](O[Si](CC)(CC)CC)(CC)CC,chen14,1,1,0,0
Dodecamethylpentasiloxane,352.15,1,C[Si](O[Si](O[Si](O[Si](O[Si](C)(C)C)(C)C)(C)C)(C)C)(C)C,chen14,1,1,0,0
Methyldiphenylchlorosilane,411.15,1,C[Si](Cl)(C1=CC=CC=C1)C1=CC=CC=C1,chen14,1,1,0,0
n-Dodecylmethyldichlorosilane,416.15,1,C(CCCCCCCCCCC)[Si](Cl)(Cl)C,chen14,1,1,0,0
Diphenyldimethoxysilane,394.15,1,C1(=CC=CC=C1)[Si](OC)(OC)C1=CC=CC=C1,chen14,1,1,0,0
Octyltriethoxysilane,373.15,1,C(CCCCCCC)[Si](OCC)(OCC)OCC,chen14,1,1,0,0
Tetradecamethylhexasiloxane,375.15,1,C[Si](O[Si](O[Si](O[Si](O[Si](O[Si](C)(C)C)(C)C)(C)C)(C)C)(C)C)(C)C,chen14,1,1,0,0
n-Octadecyltrichlorosilane,466.15,1,C(CCCCCCCCCCCCCCCCC)[Si](Cl)(Cl)Cl,chen14,1,1,0,0
Octadecamethyloctasiloxane,417.15,1,C[Si](O[Si](O[Si](O[Si](O[Si](O[Si](O[Si](O[Si](C)(C)C)(C)C)(C)C)(C)C)(C)C)(C)C)(C)C)(C)C,chen14,1,1,0,0
Vinyltris(methoxyethoxy)silane,353.15,1,C(=C)[Si](OCCOC)(OCCOC)OCCOC,chen14,1,1,0,0
Trimethyl(vinyloxy)silane,263.15,1,C[Si](OC=C)(C)C,chen14,1,1,0,0
Trichloro(3-cyanopropyl) Silane,365.15,1,Cl[Si](CCCC#N)(Cl)Cl,chen14,1,1,0,0
Trichloro(2-phenylethyl)silane,364.15,1,Cl[Si](CCC1=CC=CC=C1)(Cl)Cl,chen14,1,1,0,0
"Chlorodimethyl(3,3,3-trifluoropropyl) silane",293.15,1,Cl[Si](CCC(F)(F)F)(C)C,chen14,1,1,0,0
Vinylmethylbis (trimethylsiloxy) silane,324.15,1,C(=C)C[SiH](O[Si](C)(C)C)O[Si](C)(C)C,chen14,1,1,0,0
Trichloro(Chloromethyl) silane,342.15,1,Cl[Si](CCl)(Cl)Cl,chen14,1,1,0,0
Dimethyl(pentafluorophenyl) silane,313.15,1,C[SiH](C1=C(C(=C(C(=C1F)F)F)F)F)C,chen14,1,1,0,0
Trichloro(p-chlorophenyl)silane,397.05,1,Cl[Si](C1=CC=C(C=C1)Cl)(Cl)Cl,chen14,1,1,0,0
Trisilane,273.15,1,[SiH3][SiH2][SiH3],chen14,1,1,0,0
Trichlorononylsilane,387.15,1,ClC(CCCCCCCC[SiH3])(Cl)Cl,chen14,1,1,0,0
Dichloroethylsilane,263.75,1,ClC(C[SiH3])Cl,chen14,1,1,0,0
Trichloro(dichlorophenyl)silane,419.15,1,Cl[Si](C1=C(C(=CC=C1)Cl)Cl)(Cl)Cl,chen14,1,1,0,0
Tris(trimethylsilyl)silane,328.15,1,C[Si](C)(C)[SiH]([Si](C)(C)C)[Si](C)(C)C,chen14,1,1,0,0
Tris(trimethylsiloxy)silane,323.15,1,C[Si](O[SiH](O[Si](C)(C)C)O[Si](C)(C)C)(C)C,chen14,1,1,0,0
Hexadecyltrichlorosilane,427.15,1,C(CCCCCCCCCCCCCCC)[Si](Cl)(Cl)Cl,chen14,1,1,0,0
Dimethylvinylchlorosilane,268.15,1,CC(=C[SiH2]Cl)C,chen14,1,1,0,0
"1,3-Dichlorotetramethyldisiloxane",288.15,1,Cl[Si](O[Si](Cl)(C)C)(C)C,chen14,1,1,0,0
"1,1,3,3-Tetramethyldisiloxane",251.15,1,C[SiH](O[SiH](C)C)C,chen14,1,1,0,0
Tetramethyldisilazane,284.15,1,CN([Si](C)(C)C)[SiH3],chen14,1,1,0,0
Allyl Dimethylchlorosilane,278.15,1,C(C=C)[Si](Cl)(C)C,chen14,1,1,0,0
sec-Amyltrichlorosilane,303.15,1,C(C)(CCC)[Si](Cl)(Cl)Cl,chen14,1,1,0,0
n-Butylmethyldichlorosilane,303.15,1,C(CCC)[Si](Cl)(Cl)C,chen14,1,1,0,0
Bis(dimethylamino)methylsilane,270.15,1,CN(C)C(N(C)C)[SiH3],chen14,1,1,0,0
Phenyltrichlorosilane,364.15,1,C1(=CC=CC=C1)[Si](Cl)(Cl)Cl,chen14,1,1,0,0
Phenyl trifluorosilane,268.15,1,C1(=CC=CC=C1)[Si](F)(F)F,chen14,1,1,0,0
Dimethyldiacetoxysilane,310.15,1,C[Si](OC(C)=O)(OC(C)=O)C,chen14,1,1,0,0
1-Trimethylsilylpropyne,270.15,1,C[Si](C#CC)(C)C,chen14,1,1,0,0
Vinyldimethylethoxysilane,277.15,1,C(=C)[Si](OCC)(C)C,chen14,1,1,0,0
Allyloxytrimethylsilane,273.15,1,C(C=C)O[Si](C)(C)C,chen14,1,1,0,0
Allyltrimethoxysilane,319.15,1,C(C=C)[Si](OC)(OC)OC,chen14,1,1,0,0
3-Chloropropyltrimethoxysilane,348.15,1,ClCCC[Si](OC)(OC)OC,chen14,1,1,0,0
n-Propyltrimethoxysilane,298.15,1,C(CC)[Si](OC)(OC)OC,chen14,1,1,0,0
Hexamethyldisiloxane,270.15,1,C[Si](O[Si](C)(C)C)(C)C,chen14,1,1,0,0
Hexamethyldisilane,272.15,1,C[Si]([Si](C)(C)C)(C)C,chen14,1,1,0,0
Vinyldiethylmethylsilane,288.15,1,C(=C)[Si](C)(CC)CC,chen14,1,1,0,0
Isobutyltrimethoxysilane,315.15,1,C(C(C)C)[Si](OC)(OC)OC,chen14,1,1,0,0
Phenyldimethylchlorosilane,334.15,1,C1(=CC=CC=C1)[Si](Cl)(C)C,chen14,1,1,0,0
"(N,N-Dimethylamino)triethylsilane",299.15,1,CN(C)[Si](CC)(CC)CC,chen14,1,1,0,0
Vinyltriacetoxysilane,361.15,1,C(=C)[Si](OC(C)=O)(OC(C)=O)OC(C)=O,chen14,1,1,0,0
Ethyltriacetoxysilane,377.15,1,C(C)[Si](OC(C)=O)(OC(C)=O)OC(C)=O,chen14,1,1,0,0
3-(Trimethylsilyl)cyclopentene,299.15,1,C[Si](C1C=CCC1)(C)C,chen14,1,1,0,0
n-Octylsilane,309.15,1,C(CCCCCCC)[SiH3],chen14,1,1,0,0
Methyl phenyldimethoxysilane,349.15,1,C[Si](OC)(OC)C1=CC=CC=C1,chen14,1,1,0,0
2-Cyanoethyltriethoxysilane,359.15,1,C(#N)CC[Si](OCC)(OCC)OCC,chen14,1,1,0,0
3-Glycidoxypropyltrimethoxysilane,383.15,1,C(C1CO1)OCCC[Si](OC)(OC)OC,chen14,1,1,0,0
Di-t-butylmethylchlorosilane,342.15,1,C(C)(C)(C)[Si](Cl)(C)C(C)(C)C,chen14,1,1,0,0
Tri-n-propylchlorosilane,349.15,1,C(CC)[Si](Cl)(CCC)CCC,chen14,1,1,0,0
(Diisopropylamino)trimethylsilane,301.15,1,C(C)(C)N(C(C)C)[Si](C)(C)C,chen14,1,1,0,0
1-Chlorononamethyltetrasiloxane,347.15,1,Cl[Si](O[Si](O[Si](O[Si](C)(C)C)(C)C)(C)C)(C)C,chen14,1,1,0,0
Tristrimethylsiloxymethylsilane,336.15,1,C[Si](OC(O[Si](C)(C)C)(O[Si](C)(C)C)[SiH3])(C)C,chen14,1,1,0,0
Diphenylmethylsilane,393.15,1,C1(=CC=CC=C1)C(C1=CC=CC=C1)[SiH3],chen14,1,1,0,0
Trimethyl[(1-methylethenyl)oxy]silane,272.15,1,C[Si](OC(=C)C)(C)C,chen14,1,1,0,0
"Dichloromethyl-3,3,3-trifluoropropylsilane",288.15,1,ClC(Cl)[SiH2]CCC(F)(F)F,chen14,1,1,0,0
[2-(chloromethoxy)ethyl]trimethylsilane,319.15,1,ClCOCC[Si](C)(C)C,chen14,1,1,0,0
Iodotrimethylsilane,288.15,1,I[Si](C)(C)C,chen14,1,1,0,0
Triphenylsilane,416.35,1,C1(=CC=CC=C1)[SiH](C1=CC=CC=C1)C1=CC=CC=C1,chen14,1,1,0,0
[3-(mercapto)propyl]triethoxysilane,360.93,1,SCCC[Si](OCC)(OCC)OCC,chen14,1,1,0,0
Gamma-aminopropylethoxysilane,369.26,1,NCCC[SiH2]OCC,chen14,1,1,0,0
Dichlorodiethylsilane,297.15,1,Cl[Si](CC)(CC)Cl,chen14,1,1,0,0
TRIS(TRIMETHYLSILOXY)BORON,315.15,1,C[Si](C)(C)OB(O[Si](C)(C)C)O[Si](C)(C)C,gelest_metal-organics,1,1,0,0
Methyldichlorosilane,241.0,1,C[SiH](Cl)Cl,pan12,1,1,0,0
"1,1,1-Trifluoropropyltrichlorosilane",288.0,1,FC(C(C)[Si](Cl)(Cl)Cl)(F)F,pan12,1,1,0,0
Methylvinyldichlorosilane,272.0,1,CC=C[SiH](Cl)Cl,pan12,1,1,0,0
3-Chloropropylmethyldichlorosilane,359.0,1,ClCCC[Si](Cl)(Cl)C,pan12,1,1,0,0
tetramethylsilane,246.15,1,C[Si](C)(C)C,pubchem,1,1,0,0
"2,2,4,4,6,6,8,8-octamethyl-1,3,5,7,2,4,6,8-tetraoxatetrasilocane",328.15,1,C[Si]1(O[Si](O[Si](O[Si](O1)(C)C)(C)C)(C)C)C,pubchem,1,1,0,0
"2,2,4,4,6,6,8,8,10,10-decamethyl-1,3,5,7,9,2,4,6,8,10-pentaoxapentasilecane",346.15,1,C[Si]1(O[Si](O[Si](O[Si](O[Si](O1)(C)C)(C)C)(C)C)(C)C)C,pubchem,1,1,0,0
"2,2,4,4,6,6,8,8,10,10,12,12-dodecamethyl-1,3,5,7,9,11-hexaoxa-2,4,6,8,10,12-hexasilacyclododecane",364.15,1,C[Si]1(O[Si](O[Si](O[Si](O[Si](O[Si](O1)(C)C)(C)C)(C)C)(C)C)(C)C)C,pubchem,1,1,0,0
Hexadecamethylheptasiloxane,406.15,1,C[Si](O[Si](O[Si](O[Si](O[Si](O[Si](O[Si](C)(C)C)(C)C)(C)C)(C)C)(C)C)(C)C)(C)C,chen14,1,1,0,0
Dimethylchlorosilane,245.15,1,C[SiH](Cl)C,chen14,1,1,0,0
Trichlorosilane,245.15,1,Cl[SiH](Cl)Cl,chen14,1,1,0,0
Dichlorosilane,236.15,1,Cl[SiH2]Cl,chen14,1,1,0,0
Dichloromethylmethyldichlorosilane,301.15,1,ClC(Cl)[Si](Cl)(Cl)C,chen14,1,1,0,0
Dimethyldichlorosilane,257.15,1,C[Si](Cl)(Cl)C,chen14,1,1,0,0
Allyltrichlorosilane,304.15,1,C(C=C)[Si](Cl)(Cl)Cl,chen14,1,1,0,0
3-Chloropropyltrichlorosilane,357.15,1,ClCCC[Si](Cl)(Cl)Cl,chen14,1,1,0,0
Bromomethyldimethylchlorosilane,314.15,1,BrC[Si](Cl)(C)C,chen14,1,1,0,0
Chloromethyldimethylchlorosilane,295.15,1,ClC[Si](Cl)(C)C,chen14,1,1,0,0
Trimethyl bromosilane,270.15,1,C[Si](Br)(C)C,chen14,1,1,0,0
Trimethylchlorosilane,255.15,1,C[Si](Cl)(C)C,chen14,1,1,0,0
Trimethoxysilane,264.15,1,CO[SiH](OC)OC,chen14,1,1,0,0
Trimethylsilane,204.15,1,C[SiH](C)C,chen14,1,1,0,0
2-Cyanoethylmethyldichlorosilane,333.15,1,C(#N)CC[Si](Cl)(Cl)C,chen14,1,1,0,0
Allylmethyldichlorosilane,300.15,1,C(C=C)C[SiH](Cl)Cl,chen14,1,1,0,0
t-Butyltrichlorosilane,294.15,1,C(C)(C)(C)[Si](Cl)(Cl)Cl,chen14,1,1,0,0
Isobutyltrichlorosilane,310.15,1,C(C(C)C)[Si](Cl)(Cl)Cl,chen14,1,1,0,0
n-Butyltrichlorosilane,327.15,1,C(CCC)[Si](Cl)(Cl)Cl,chen14,1,1,0,0
n-Propylmethyldichlorosilane,300.15,1,C(CC)[Si](Cl)(Cl)C,chen14,1,1,0,0
Bromomethyltrimethylsilane,289.15,1,BrC[Si](C)(C)C,chen14,1,1,0,0